[Molden Format]
[Title]
 Molden file created by orca_2mkl for BaseName=test1

[Atoms] AU
H    1   1          0.0000000000         0.0000000000         0.0000000000 
H    2   1          0.0000000000         0.0000000000         1.5117809071 
[GTO]
  1 0
s   3 1.0 
        3.4252509100         0.2769343610
        0.6239137300         0.2678388518
        0.1688554000         0.0834736696

  2 0
s   3 1.0 
        3.4252509100         0.2769343610
        0.6239137300         0.2678388518
        0.1688554000         0.0834736696

[5D]
[7F]
[9G]
[MO]
 Sym=     1a
 Ene= -5.54495879593352E-01
 Spin= Alpha
 Occup= 2.000000
  1       0.555417136466
  2       0.555417136466
 Sym=     1a
 Ene= 6.12618083092502E-01
 Spin= Alpha
 Occup= 0.000000
  1       1.148299480070
  2      -1.148299480070
