[Molden Format]
[Title]
 Molden file created by orca_2mkl for BaseName=test3

[Atoms] AU
C    1   6         12.5391157516         6.1231098528        10.4796002644 
H    2   1         13.5414906417         4.3253494654        10.6235785552 
H    3   1         13.8931946382         7.6761997971        10.5882720800 
H    4   1         11.1850368651         6.2815525515        12.0284042721 
H    5   1         11.5367408634         6.2093375933         8.6781461483 
[GTO]
  1 0
s   5 1.0 
     1238.4016938000         0.8208956682
      186.2900499200         1.4766449896
       42.2511763460         2.1526124058
       11.6765579320         2.1081722461
        3.5930506482         0.8290999933
s   1 1.0 
        0.4024514736         0.3601183351
s   1 1.0 
        0.1309018267         0.1551027052
p   3 1.0 
        9.4680970621         1.3467645142
        2.0103545142         1.0678070931
        0.5477100471         0.5108735714
p   1 1.0 
        0.1526861379         0.1360471976
d   1 1.0 
        0.8000000000         1.9292013661

  2 0
s   3 1.0 
       13.0107010000         0.1634903809
        1.9622572000         0.2773515510
        0.4445379600         0.3157501452
s   1 1.0 
        0.1219496200         0.1470772262
p   1 1.0 
        0.8000000000         1.0784563492

  3 0
s   3 1.0 
       13.0107010000         0.1634903809
        1.9622572000         0.2773515510
        0.4445379600         0.3157501452
s   1 1.0 
        0.1219496200         0.1470772262
p   1 1.0 
        0.8000000000         1.0784563492

  4 0
s   3 1.0 
       13.0107010000         0.1634903809
        1.9622572000         0.2773515510
        0.4445379600         0.3157501452
s   1 1.0 
        0.1219496200         0.1470772262
p   1 1.0 
        0.8000000000         1.0784563492

  5 0
s   3 1.0 
       13.0107010000         0.1634903809
        1.9622572000         0.2773515510
        0.4445379600         0.3157501452
s   1 1.0 
        0.1219496200         0.1470772262
p   1 1.0 
        0.8000000000         1.0784563492

[5D]
[7F]
[9G]
[MO]
 Sym=     1a
 Ene= -1.12181607954674E+01
 Spin= Alpha
 Occup= 2.000000
  1      -0.990580746836
  2      -0.038183520897
  3       0.029485846396
  4      -0.000000000016
  5      -0.000000007136
  6      -0.000000006749
  7       0.000000000008
  8       0.000000000107
  9       0.000000000128
 10       0.000000001570
 11       0.000000001937
 12      -0.000000000126
 13      -0.000000002921
 14      -0.000000001971
 15       0.001617458383
 16      -0.005625422586
 17      -0.000585471864
 18       0.001050044488
 19      -0.000084095297
 20       0.001617459653
 21      -0.005625424481
 22      -0.000790898984
 23      -0.000907138740
 24      -0.000063473592
 25       0.001617459616
 26      -0.005625424453
 27       0.000790898960
 28      -0.000092544042
 29      -0.000904635365
 30       0.001617458358
 31      -0.005625422579
 32       0.000585471894
 33      -0.000050364107
 34       0.001052201952
 Sym=     1a
 Ene= -9.31849406647882E-01
 Spin= Alpha
 Occup= 2.000000
  1       0.244890166694
  2      -0.461049735609
  3      -0.153745146702
  4       0.000000005758
  5       0.000000124895
  6       0.000000127154
  7       0.000000004348
  8       0.000000003184
  9       0.000000008153
 10       0.000000008530
 11      -0.000000000835
 12       0.000000005485
 13      -0.000000017420
 14      -0.000000000450
 15      -0.181308346750
 16      -0.029763209208
 17       0.011574873178
 18      -0.020759541582
 19       0.001662585545
 20      -0.181308178049
 21      -0.029763135925
 22       0.015636158790
 23       0.017934211257
 24       0.001254880707
 25      -0.181308182901
 26      -0.029763134952
 27      -0.015636158514
 28       0.001829607420
 29       0.017884721158
 30      -0.181308358766
 31      -0.029763204564
 32      -0.011574874310
 33       0.000995712361
 34      -0.020802195555
 Sym=     1a
 Ene= -5.44621244378595E-01
 Spin= Alpha
 Occup= 2.000000
  1       0.000000003523
  2      -0.000000008596
  3       0.000000011419
  4      -0.417604351804
  5      -0.058394467304
  6       0.055132483321
  7      -0.193882326204
  8      -0.027110951374
  9       0.025596505099
 10       0.019269126363
 11      -0.008025592099
 12       0.000682163003
 13       0.011062986300
 14      -0.008579487651
 15      -0.137043252007
 16      -0.055619027634
 17      -0.005634498443
 18      -0.011009294722
 19       0.002201264083
 20      -0.291486571307
 21      -0.118300345380
 22       0.004269324201
 23       0.015896183402
 24       0.002660996726
 25       0.287647444154
 26       0.116742227796
 27       0.004069247365
 28      -0.003281250968
 29      -0.015704565194
 30       0.140882364913
 31       0.057177129693
 32      -0.005486392137
 33      -0.001994712065
 34       0.011209645662
 Sym=     1a
 Ene= -5.44620503156994E-01
 Spin= Alpha
 Occup= 2.000000
  1      -0.000000070087
  2       0.000000089436
  3       0.000000378713
  4       0.051776019052
  5       0.027400470803
  6       0.421201850855
  7       0.024038221982
  8       0.012721453000
  9       0.195553934507
 10      -0.009183583260
 11      -0.023233666119
 12       0.002446936727
 13       0.000096399084
 14       0.001426623034
 15       0.028371574545
 16       0.011514439254
 17       0.000259539753
 18       0.002679637676
 19       0.010858314182
 20       0.071031197518
 21       0.028827818780
 22      -0.002347700593
 23      -0.003529220677
 24       0.010718450665
 25       0.262983451563
 26       0.106731188607
 27       0.015059380131
 28      -0.000887071851
 29      -0.004660660839
 30      -0.362385899455
 31      -0.147073952856
 32      -0.012626257412
 33       0.001919229413
 34      -0.014109728490
 Sym=     1a
 Ene= -5.44620457969725E-01
 Spin= Alpha
 Occup= 2.000000
  1       0.000000061751
  2      -0.000000079765
  3      -0.000000343292
  4       0.061390138624
  5      -0.420335381853
  6       0.019797796281
  7       0.028501803150
  8      -0.195151662766
  9       0.009191610688
 10      -0.005363652048
 11       0.000380925617
 12      -0.002767541595
 13      -0.008071893476
 14      -0.023031388979
 15       0.367647715810
 16       0.149209439646
 17      -0.012577816840
 18       0.014444939726
 19      -0.001519489085
 20      -0.254442163621
 21      -0.103264718110
 22       0.014865686904
 23       0.004216153765
 24       0.001581951927
 25      -0.053378964989
 26      -0.021663748796
 27      -0.001176326826
 28      -0.010667369325
 29       0.003699631704
 30      -0.059826872812
 31      -0.024280501512
 32      -0.000702525691
 33      -0.010794325319
 34      -0.003630197954
 Sym=     1a
 Ene= 1.86589541611485E-01
 Spin= Alpha
 Occup= 0.000000
  1      -0.124425841079
  2       0.080544877962
  3       3.274165344984
  4      -0.000000015769
  5      -0.000000354981
  6      -0.000000358408
  7      -0.000000065354
  8      -0.000001110295
  9      -0.000001138364
 10      -0.000000002414
 11      -0.000000001670
 12       0.000000001922
 13       0.000000008258
 14       0.000000002971
 15      -0.000259351150
 16      -1.160532252027
 17       0.001890475904
 18      -0.003390516336
 19       0.000271535349
 20      -0.000259287363
 21      -1.160529382431
 22       0.002553782756
 23       0.002929062950
 24       0.000204943198
 25      -0.000259282438
 26      -1.160529466944
 27      -0.002553781329
 28       0.000298807182
 29       0.002920981976
 30      -0.000259320056
 31      -1.160532520297
 32      -0.001890475148
 33       0.000162618962
 34      -0.003397483760
 Sym=     1a
 Ene= 2.73954241059196E-01
 Spin= Alpha
 Occup= 0.000000
  1      -0.000000010891
  2       0.000000018890
  3       0.000000201039
  4       0.290333635837
  5       0.024589201898
  6      -0.019816209075
  7       1.367044686031
  8       0.115778770596
  9      -0.093304937897
 10      -0.000925169601
 11       0.000306493845
 12      -0.000031969728
 13      -0.000529649298
 14       0.000337667402
 15      -0.016328884247
 16      -0.898977143435
 17       0.003360685626
 18      -0.005040210399
 19       0.000371346318
 20      -0.028725010841
 21      -1.581435504759
 22       0.007262849571
 23       0.007771953306
 24       0.000504823011
 25       0.028106539644
 26       1.547385909189
 27       0.007117790205
 28      -0.000726845040
 29      -0.007576069106
 30       0.016947357965
 31       0.933026436498
 32       0.003468067732
 33      -0.000208602550
 34       0.005252281084
 Sym=     1a
 Ene= 2.73954593736555E-01
 Spin= Alpha
 Occup= 0.000000
  1       0.000000051426
  2       0.000000056257
  3      -0.000001973023
  4      -0.027367861480
  5       0.104471144995
  6      -0.271343557499
  7      -0.128863611914
  8       0.491907073328
  9      -1.277632908013
 10       0.000417534417
 11       0.000995428279
 12      -0.000052629457
 13       0.000109176425
 14       0.000406921857
 15       0.017021747249
 16       0.937118717084
 17      -0.003004940704
 18       0.005489621471
 19      -0.000915692864
 20      -0.006405768069
 21      -0.352668809557
 22       0.001452902573
 23       0.001912387801
 24      -0.000370600629
 25       0.024540077486
 26       1.351048855959
 27       0.005706254990
 28      -0.000484376870
 29      -0.007074708350
 30      -0.035156090653
 31      -1.935496093305
 32      -0.006153517734
 33       0.000714198639
 34      -0.011461175437
 Sym=     1a
 Ene= 2.73954631017791E-01
 Spin= Alpha
 Occup= 0.000000
  1      -0.000000096974
  2      -0.000000203049
  3       0.000004413375
  4      -0.015757368875
  5       0.271609455290
  6       0.106162853615
  7      -0.074194634846
  8       1.278885062808
  9       0.499872401474
 10       0.000025513540
 11      -0.000448895695
 12       0.000162026494
 13       0.000326668422
 14       0.001005183592
 15       0.032716036535
 16       1.801160176979
 17      -0.005708841754
 18       0.010679335756
 19      -0.000623723596
 20      -0.027577950833
 21      -1.518295846350
 22       0.006439797174
 23       0.007910646099
 24       0.000711284125
 25      -0.015313719483
 26      -0.843089238973
 27      -0.003620305672
 28       0.000911936790
 29       0.004300468222
 30       0.010175717080
 31       0.560219029591
 32       0.001738228989
 33       0.000339692663
 34       0.003367377978
 Sym=     1a
 Ene= 5.93221755776426E-01
 Spin= Alpha
 Occup= 0.000000
  1       0.000000003680
  2      -0.000000064742
  3       0.000000123941
  4       0.005088463534
  5       0.190744182947
  6       0.240046359289
  7      -0.021349452149
  8      -0.800295951612
  9      -1.007150803961
 10      -0.014176516334
 11      -0.061585789746
 12       0.011522652613
 13       0.015150394522
 14       0.046274707559
 15      -0.419258018804
 16       0.010382851098
 17      -0.007631960273
 18      -0.007799706022
 19      -0.026824540422
 20       0.455161484641
 21      -0.011272053909
 22       0.009843359756
 23      -0.008589030768
 24      -0.024973045271
 25       0.546267613969
 26      -0.013528191520
 27      -0.013017233556
 28      -0.019047392180
 29      -0.011543452797
 30      -0.582170990125
 31       0.014417278454
 32       0.009290878913
 33      -0.021352801072
 34      -0.008126289770
 Sym=     1a
 Ene= 5.93221780272125E-01
 Spin= Alpha
 Occup= 0.000000
  1       0.000000000893
  2       0.000000013452
  3      -0.000000123253
  4      -0.031536131849
  5       0.239131677351
  6      -0.189348825137
  7       0.132314603690
  8      -1.003313033798
  9       0.794441637079
 10       0.025578231059
 11       0.043966959738
 12       0.002535538655
 13       0.017842309662
 14       0.059877545015
 15      -0.675754266597
 16       0.016735147995
 17      -0.008028985591
 18      -0.005227905787
 19       0.018716269430
 20       0.425982016768
 21      -0.010549428043
 22       0.013114693416
 23      -0.014555081355
 24       0.021136959093
 25      -0.294030895237
 26       0.007281752772
 27       0.010102520083
 28      -0.026493984863
 29       0.012679148959
 30       0.543803199312
 31      -0.013467353994
 32      -0.005799188918
 33      -0.024918046433
 34       0.003841142114
 Sym=     1a
 Ene= 5.93221913589751E-01
 Spin= Alpha
 Occup= 0.000000
  1       0.000000000061
  2      -0.000000024245
  3       0.000000136637
  4       0.304977140450
  5       0.021544887920
  6      -0.023584744691
  7      -1.279578062083
  8      -0.090395070051
  9       0.098953544781
 10      -0.064214354957
 11       0.022037526650
 12      -0.002416943875
 13      -0.037145576672
 14       0.022420072452
 15       0.364402573753
 16      -0.009024681205
 17      -0.026629555828
 18      -0.013360513697
 19       0.003420058046
 20       0.613659229940
 21      -0.015196608955
 22      -0.018778936370
 23       0.013751224501
 24       0.003659814793
 25      -0.616723473559
 26       0.015272483955
 27      -0.018708986284
 28      -0.003963603453
 29      -0.013567594801
 30      -0.361338368343
 31       0.008948676856
 32      -0.026681341751
 33      -0.002841523591
 34       0.013509449421
 Sym=     1a
 Ene= 8.70707150395532E-01
 Spin= Alpha
 Occup= 0.000000
  1      -0.324370393945
  2       2.184510275521
  3      -5.655853401484
  4      -0.000000075315
  5      -0.000000426526
  6      -0.000000497590
  7       0.000000108841
  8       0.000000919750
  9       0.000001012839
 10      -0.000000030370
 11      -0.000000093895
 12       0.000000022195
 13       0.000000013929
 14       0.000000080362
 15      -0.109032046103
 16       1.288388586381
 17      -0.050211654750
 18       0.090054739199
 19      -0.007212308815
 20      -0.109031541634
 21       1.288386762632
 22      -0.067829318017
 23      -0.077798419665
 24      -0.005443710293
 25      -0.109031570257
 26       1.288386835874
 27       0.067829313329
 28      -0.007936862894
 29      -0.077583743980
 30      -0.109032154529
 31       1.288388845408
 32       0.050211670496
 33      -0.004319418085
 34       0.090239813323
 Sym=     1a
 Ene= 9.27089550513564E-01
 Spin= Alpha
 Occup= 0.000000
  1      -0.000000026170
  2       0.000000201880
  3      -0.000000568934
  4       0.908561295302
  5       0.120721204010
  6      -0.108271262919
  7      -1.508240866573
  8      -0.200401008606
  9       0.179733711681
 10       0.134228450210
 11      -0.053550259248
 12       0.004651459619
 13       0.076869947483
 14      -0.058248298009
 15      -0.199222207062
 16       0.611302247434
 17       0.029022277083
 18       0.104937632281
 19      -0.017248539997
 20      -0.413070352622
 21       1.267483394768
 22      -0.065476159927
 23      -0.157743153960
 24      -0.021506721904
 25       0.405090588037
 26      -1.242997580104
 27      -0.062636931792
 28       0.027693316987
 29       0.155147145746
 30       0.207202023242
 31      -0.635787581445
 32       0.026920508711
 33       0.015522923806
 34      -0.107791546361
 Sym=     1a
 Ene= 9.27089905905874E-01
 Spin= Alpha
 Occup= 0.000000
  1      -0.000000194629
  2       0.000001299640
  3      -0.000003217096
  4       0.117870356217
  5      -0.068443060181
  6       0.912799318904
  7      -0.195668497094
  8       0.113617634582
  9      -1.515275051899
 10       0.066250651465
 11       0.159419017918
 12      -0.014177324206
 13       0.006034631358
 14       0.012939691717
 15      -0.109472530219
 16       0.335911227749
 17      -0.018261099430
 18       0.045574086462
 19       0.077733238673
 20      -0.044804345360
 21       0.137480398282
 22      -0.005368942339
 23      -0.024423531740
 24       0.080595428473
 25      -0.365272486432
 26       1.120818515957
 27       0.140536969061
 28      -0.021346425075
 29      -0.066779334537
 30       0.519549313494
 31      -1.594207388498
 32      -0.126269796638
 33       0.005632552479
 34      -0.164056373871
 Sym=     1a
 Ene= 9.27089938201470E-01
 Spin= Alpha
 Occup= 0.000000
  1      -0.000000195704
  2       0.000001259009
  3      -0.000002995493
  4      -0.111368134696
  5       0.912426665063
  6       0.082796160923
  7       0.184874602060
  8      -1.514656387518
  9      -0.137444140916
 10      -0.027221110503
 11       0.024437895702
 12      -0.021253440356
 13      -0.054926439021
 14      -0.159378789705
 15       0.511210926557
 16      -1.568621559834
 17       0.124656798797
 18      -0.159646612102
 19       0.026766709480
 20      -0.374667964932
 21       1.149647899131
 22      -0.143296665778
 23      -0.071058358467
 24      -0.003272087534
 25      -0.124451872209
 26       0.381874261568
 27       0.034290855816
 28       0.076660103520
 29      -0.043221433950
 30      -0.012091229398
 31       0.037101965031
 32      -0.006804622448
 33       0.081567441546
 34       0.013150016528
 Sym=     1a
 Ene= 1.00966131929881E+00
 Spin= Alpha
 Occup= 0.000000
  1      -0.011899119592
  2      -0.738565623033
  3       3.490823886967
  4       0.000000030324
  5       0.000000053216
  6       0.000000081583
  7      -0.000000031732
  8      -0.000000057425
  9      -0.000000088761
 10      -0.000000001766
 11       0.000000023931
 12      -0.000000011654
 13       0.000000020176
 14      -0.000000018931
 15      -0.764420418338
 16      -0.445888415269
 17      -0.043571273580
 18       0.078145262185
 19      -0.006258446099
 20      -0.764420399639
 21      -0.445888324752
 22      -0.058859202702
 23      -0.067509920495
 24      -0.004723762961
 25      -0.764420381890
 26      -0.445888355186
 27       0.058859209652
 28      -0.006887219288
 29      -0.067323608454
 30      -0.764420354950
 31      -0.445888522206
 32       0.043571278368
 33      -0.003748141915
 34       0.078305814568
 Sym=     1a
 Ene= 1.33885297354759E+00
 Spin= Alpha
 Occup= 0.000000
  1      -0.000000006151
  2       0.000000005191
  3       0.000000047917
  4       0.000000000406
  5      -0.000000013028
  6      -0.000000014811
  7       0.000000001721
  8      -0.000000010150
  9      -0.000000022353
 10       0.006033633195
 11       0.034138110807
 12       0.367403470138
 13      -0.034037054726
 14      -0.033059899421
 15      -0.000000059354
 16       0.000000043595
 17       0.015684349855
 18      -0.020628533515
 19      -0.366769236027
 20      -0.000000002092
 21      -0.000000046302
 22      -0.057742238835
 23       0.024995399932
 24       0.362259989753
 25       0.000000009074
 26      -0.000000043238
 27       0.057742236326
 28       0.362875427838
 29       0.013360367137
 30      -0.000000061599
 31       0.000000040970
 32      -0.015684348367
 33      -0.367242272737
 34      -0.008851084144
 Sym=     1a
 Ene= 1.33885298301891E+00
 Spin= Alpha
 Occup= 0.000000
  1      -0.000000037932
  2       0.000000117201
  3      -0.000000025572
  4      -0.000000000531
  5      -0.000000007795
  6      -0.000000006295
  7      -0.000000017872
  8       0.000000002160
  9       0.000000006555
 10       0.179784957188
 11      -0.070183868200
 12      -0.019050504115
 13      -0.310173682048
 14       0.067967191204
 15      -0.000000100879
 16       0.000000063372
 17      -0.320998483891
 18      -0.179270495208
 19      -0.003644193848
 20      -0.000000089208
 21      -0.000000001829
 22      -0.271357340657
 23       0.240774804866
 24      -0.059865991410
 25      -0.000000098776
 26      -0.000000012441
 27       0.271357340458
 28      -0.052110553983
 29       0.242571503014
 30      -0.000000104746
 31       0.000000058898
 32       0.320998502113
 33      -0.009393737757
 34      -0.179061307093
 Sym=     1a
 Ene= 1.80757072885553E+00
 Spin= Alpha
 Occup= 0.000000
  1       0.000000000584
  2      -0.000000001556
  3       0.000000003277
  4       0.000000009744
  5      -0.000000023067
  6       0.000000026162
  7      -0.000000038773
  8       0.000000072673
  9      -0.000000124629
 10       0.000000034615
 11       0.000000036466
 12       0.000000015831
 13       0.000000017232
 14       0.000000031476
 15       0.000000051472
 16       0.000000017105
 17      -0.071408704566
 18      -0.085452591653
 19      -0.569842317632
 20      -0.000000010710
 21      -0.000000003393
 22       0.068005846249
 23      -0.089528168733
 24       0.432126731207
 25       0.000000032280
 26       0.000000010727
 27       0.048609084789
 28      -0.410803629795
 29       0.084522912810
 30      -0.000000068919
 31      -0.000000029736
 32      -0.045206192882
 33       0.585784299548
 34       0.053192863903
 Sym=     1a
 Ene= 1.80757076103814E+00
 Spin= Alpha
 Occup= 0.000000
  1       0.000000002504
  2      -0.000000006819
  3       0.000000015581
  4       0.000000054227
  5       0.000000009310
  6      -0.000000042298
  7      -0.000000123056
  8      -0.000000013158
  9      -0.000000003254
 10       0.000000051415
 11       0.000000000383
 12       0.000000012434
 13       0.000000028775
 14      -0.000000014429
 15       0.000000032440
 16       0.000000003486
 17      -0.028342966413
 18      -0.035318042577
 19      -0.243669071666
 20       0.000000062159
 21      -0.000000011647
 22       0.094771664199
 23      -0.050509171385
 24      -0.459023190724
 25      -0.000000060339
 26       0.000000047290
 27       0.473421564493
 28       0.104566506610
 29       0.403202800628
 30      -0.000000020727
 31      -0.000000061456
 32      -0.539850044278
 33      -0.018739240459
 34       0.299489283926
 Sym=     1a
 Ene= 1.80757077195003E+00
 Spin= Alpha
 Occup= 0.000000
  1       0.000000003986
  2      -0.000000010779
  3       0.000000024195
  4      -0.000000042819
  5      -0.000000042973
  6      -0.000000001468
  7       0.000000132785
  8       0.000000054205
  9      -0.000000010145
 10      -0.000000050015
 11       0.000000013200
 12       0.000000011224
 13      -0.000000011547
 14       0.000000000392
 15       0.000000004223
 16      -0.000000052877
 17       0.546427618261
 18       0.295714522389
 19      -0.111831796355
 20      -0.000000078827
 21       0.000000022457
 22      -0.461840864491
 23       0.402712544268
 24      -0.000736926132
 25       0.000000056860
 26       0.000000003056
 27       0.020313090346
 28      -0.465293515650
 29       0.065358809707
 30       0.000000040017
 31      -0.000000007947
 32      -0.104900081425
 33      -0.233133828034
 34       0.047209931645
 Sym=     1a
 Ene= 2.04248295944393E+00
 Spin= Alpha
 Occup= 0.000000
  1      -0.000000001599
  2       0.000000006462
  3       0.000000008474
  4      -0.171999186941
  5      -0.051452604050
  6       0.053892711829
  7       0.831943304450
  8       0.248871159947
  9      -0.260673743850
 10      -0.208415539361
 11       0.143249505103
 12      -0.007859734463
 13      -0.120590030555
 14       0.146691384132
 15      -0.084815764933
 16      -0.031571825184
 17      -0.440164197316
 18      -0.130978307737
 19       0.137765481717
 20      -0.360845006338
 21      -0.134321176345
 22      -0.441739097964
 23      -0.133760551457
 24       0.137660035018
 25       0.362329814039
 26       0.134873880149
 27      -0.441746965138
 28      -0.131349205846
 29       0.140003272522
 30       0.083330940599
 31       0.031019116846
 32      -0.440158366147
 33      -0.131545284607
 34       0.137227306502
 Sym=     1a
 Ene= 2.04248301590538E+00
 Spin= Alpha
 Occup= 0.000000
  1       0.000000004431
  2      -0.000000028116
  3      -0.000000061917
  4      -0.013949630663
  5      -0.110943576421
  6      -0.150440775297
  7       0.067472983265
  8       0.536623477043
  9       0.727667510817
 10      -0.073269205153
 11      -0.243674014284
 12       0.044191786297
 13       0.048549954274
 14       0.176136582097
 15       0.192565970371
 16       0.071680932127
 17      -0.034918444976
 18      -0.285053467272
 19      -0.384595559250
 20      -0.243980395584
 21      -0.090819433586
 22      -0.036960925545
 23      -0.285181268762
 24      -0.384807171656
 25      -0.272369876991
 26      -0.101387161245
 27      -0.034232352872
 28      -0.283870861130
 29      -0.386350048612
 30       0.323784325945
 31       0.120525736760
 32      -0.036938218449
 33      -0.283593456655
 34      -0.386980052334
 Sym=     1a
 Ene= 2.04248303487208E+00
 Spin= Alpha
 Occup= 0.000000
  1      -0.000000004010
  2       0.000000020126
  3       0.000000027295
  4      -0.073192857813
  5       0.142055053063
  6      -0.097972689737
  7       0.354026844536
  8      -0.687106801751
  9       0.473884506192
 10      -0.166976775841
 11      -0.125613094738
 12      -0.014811916397
 13      -0.113105377345
 14      -0.208344420754
 15      -0.403047104212
 16      -0.150030530700
 17      -0.188743774787
 18       0.366087817018
 19      -0.250760120441
 20       0.130333268859
 21       0.048515362307
 22      -0.186478432867
 23       0.364050042941
 24      -0.250478261626
 25      -0.035412747925
 26      -0.013182069244
 27      -0.186980006039
 28       0.363238131538
 29      -0.250747622610
 30       0.308126540827
 31       0.114697216624
 32      -0.188372508858
 33       0.363363841395
 34      -0.252699829441
 Sym=     1a
 Ene= 2.44170688947178E+00
 Spin= Alpha
 Occup= 0.000000
  1      -0.000000009331
  2       0.000000056374
  3       0.000000020141
  4      -0.255311184774
  5       0.397522830454
  6      -0.357805638205
  7      -0.305930736730
  8       0.476337934296
  9      -0.428746214328
 10      -0.257001832695
 11      -0.209232543191
 12      -0.013684568309
 13      -0.156435142751
 14      -0.253982086009
 15       0.166074360300
 16       0.521503381742
 17      -0.212445913215
 18       0.440106624510
 19       0.283738286288
 20      -0.037825749595
 21      -0.118779521688
 22       0.392077720889
 23      -0.225865273412
 24       0.361555145924
 25       0.023637609431
 26       0.074226245178
 27       0.338725995787
 28      -0.399406724920
 29       0.248473243779
 30      -0.151886282568
 31      -0.476950127816
 32      -0.172951626620
 33      -0.352636087233
 34      -0.409697849655
 Sym=     1a
 Ene= 2.44170691705169E+00
 Spin= Alpha
 Occup= 0.000000
  1       0.000000055668
  2      -0.000000335350
  3      -0.000000178949
  4      -0.014819593334
  5      -0.401588834978
  6      -0.435591574009
  7      -0.017757821465
  8      -0.481210021281
  9      -0.521954349912
 10      -0.073715727475
 11      -0.320428972032
 12       0.064391359200
 13       0.087447528881
 14       0.281233299109
 15      -0.104704239680
 16      -0.328790248031
 17       0.305958628295
 18      -0.129742566163
 19       0.468123285591
 20       0.112295292163
 21       0.352627015187
 22      -0.407762158416
 23      -0.091340022116
 24       0.392370440683
 25       0.116698809311
 26       0.366454831807
 27       0.453324908898
 28       0.341637787891
 29      -0.075668987750
 30      -0.124289500675
 31      -0.390291399781
 32      -0.331472195849
 33       0.422746926065
 34      -0.195520904652
 Sym=     1a
 Ene= 2.44170699120053E+00
 Spin= Alpha
 Occup= 0.000000
  1      -0.000000001857
  2       0.000000011019
  3       0.000000001284
  4      -0.534630388187
  5      -0.178704234718
  6       0.182943474754
  7      -0.640629312231
  8      -0.214135076992
  9       0.219214813918
 10      -0.284599487112
 11       0.209250187525
 12      -0.010423125624
 13      -0.164070612242
 14       0.217218574624
 15       0.030594958831
 16       0.096073628525
 17       0.438011796391
 18       0.327618346510
 19      -0.191256800021
 20       0.159495445308
 21       0.500843951129
 22      -0.076574791153
 23      -0.513021996171
 24      -0.227157135356
 25      -0.159067506518
 26      -0.499500123133
 27      -0.074965574171
 28       0.244865028521
 29       0.505134637133
 30      -0.031022909666
 31      -0.097417458472
 32       0.436820553609
 33       0.182304203309
 34      -0.334221476062
 Sym=     1a
 Ene= 2.85351172937799E+00
 Spin= Alpha
 Occup= 0.000000
  1       0.000000021557
  2      -0.000000132378
  3      -0.000000114024
  4       0.000000000882
  5      -0.000000102333
  6      -0.000000096515
  7       0.000000000892
  8      -0.000000089468
  9      -0.000000079782
 10      -0.019994110609
 11      -0.102757584591
 12      -1.112926510380
 13       0.106078258414
 14       0.099512109866
 15      -0.000000072758
 16      -0.000000025674
 17       0.018038170425
 18      -0.026051243128
 19      -0.450864947362
 20       0.000000155619
 21       0.000000077992
 22      -0.072029549776
 23       0.031656937693
 24       0.445076142818
 25       0.000000152630
 26       0.000000078514
 27       0.072029551238
 28       0.445862661341
 29       0.017361533904
 30      -0.000000073491
 31      -0.000000018317
 32      -0.018038165402
 33      -0.451468624616
 34      -0.011573009429
 Sym=     1a
 Ene= 2.85351191418979E+00
 Spin= Alpha
 Occup= 0.000000
  1      -0.000000130305
  2       0.000000813728
  3       0.000000592792
  4      -0.000000006862
  5       0.000000046840
  6       0.000000046043
  7      -0.000000013358
  8       0.000000038505
  9       0.000000039406
 10       0.544630059236
 11      -0.212958967197
 12      -0.061219807158
 13      -0.939396766305
 14       0.206232904278
 15      -0.000000182333
 16      -0.000000133581
 17       0.394647951117
 18       0.220288099745
 19       0.003060691438
 20      -0.000000305419
 21      -0.000000161042
 22       0.333342616701
 23      -0.295875218143
 24       0.074991733092
 25      -0.000000311128
 26      -0.000000173598
 27      -0.333342611663
 28       0.065460750307
 29      -0.298128811805
 30      -0.000000187873
 31      -0.000000139317
 32      -0.394647931914
 33       0.010126483351
 34       0.220076492408
 Sym=     1a
 Ene= 2.94827744168380E+00
 Spin= Alpha
 Occup= 0.000000
  1       0.313710361827
  2      -1.931422451076
  3      -1.017685818465
  4       0.000000011706
  5       0.000000097728
  6       0.000000109270
  7       0.000000004189
  8       0.000000082505
  9       0.000000083387
 10       0.000000223503