[Molden Format]
[Title]
 Molden file created by orca_2mkl for BaseName=test4

[Atoms] AU
C    1   6         12.5391157516         6.1231098528        10.4796002644 
H    2   1         13.5414906417         4.3253494654        10.6235785552 
H    3   1         13.8931946382         7.6761997971        10.5882720800 
H    4   1         11.1850368651         6.2815525515        12.0284042721 
H    5   1         11.5367408634         6.2093375933         8.6781461483 
[GTO]
  1 0
s   6 1.0 
    13575.3496820000         0.5435905310
     2035.2333680000         1.0145543947
      463.2256235900         1.7315731970
      131.2001959800         2.6910376290
       42.8530158910         3.6044547126
       15.5841857660         3.7025556986
s   2 1.0 
        6.2067138508         1.8383540830
        2.5764896527         0.5447575605
s   1 1.0 
        0.5769633942         0.4718145038
s   1 1.0 
        0.2297283136         0.2364944676
s   1 1.0 
        0.0951644400         0.1221141848
p   4 1.0 
       34.6972322440         1.3596651507
        7.9582622826         1.4512589486
        2.3780826883         1.2709231419
        0.8143320818         0.8025721189
p   1 1.0 
        0.2888754725         0.3018758868
p   1 1.0 
        0.1005682367         0.0807265016
d   1 1.0 
        1.0970000000         3.3522135855
d   1 1.0 
        0.3180000000         0.3838994974
f   1 1.0 
        0.7610000000         3.0840084332

  2 0
s   3 1.0 
       34.0613410000         0.2556299169
        5.1235746000         0.4613599649
        1.1646626000         0.6811214941
s   1 1.0 
        0.3272304100         0.3083545312
s   1 1.0 
        0.1030724100         0.1296483265
p   1 1.0 
        0.8000000000         1.0784563492

  3 0
s   3 1.0 
       34.0613410000         0.2556299169
        5.1235746000         0.4613599649
        1.1646626000         0.6811214941
s   1 1.0 
        0.3272304100         0.3083545312
s   1 1.0 
        0.1030724100         0.1296483265
p   1 1.0 
        0.8000000000         1.0784563492

  4 0
s   3 1.0 
       34.0613410000         0.2556299169
        5.1235746000         0.4613599649
        1.1646626000         0.6811214941
s   1 1.0 
        0.3272304100         0.3083545312
s   1 1.0 
        0.1030724100         0.1296483265
p   1 1.0 
        0.8000000000         1.0784563492

  5 0
s   3 1.0 
       34.0613410000         0.2556299169
        5.1235746000         0.4613599649
        1.1646626000         0.6811214941
s   1 1.0 
        0.3272304100         0.3083545312
s   1 1.0 
        0.1030724100         0.1296483265
p   1 1.0 
        0.8000000000         1.0784563492

[5D]
[7F]
[9G]
[MO]
 Sym=     1a
 Ene= -1.12078624121588E+01
 Spin= Alpha
 Occup= 2.000000
  1       0.467516422105
  2       0.612521438971
  3       0.019249399558
  4      -0.006572191627
  5       0.007540251041
  6       0.000000000023
  7      -0.000000001898
  8      -0.000000001790
  9      -0.000000000008
 10       0.000000002070
 11       0.000000001991
 12       0.000000000172
 13      -0.000000001507
 14      -0.000000001356
 15      -0.000000000498
 16      -0.000000000303
 17       0.000000000009
 18       0.000000000940
 19       0.000000000277
 20      -0.000000000191
 21      -0.000000000396
 22       0.000000000138
 23       0.000000000172
 24       0.000000000434
 25      -0.000179795753
 26      -0.000669359872
 27       0.000066370893
 28       0.000040650744
 29      -0.000027177427
 30       0.000518483939
 31      -0.000168831948
 32      -0.000046063983
 33      -0.000106057284
 34      -0.001440417304
 35       0.000205808363
 36      -0.000369117447
 37       0.000029561760
 38      -0.000046064109
 39      -0.000106058656
 40      -0.001440415137
 41       0.000278020207
 42       0.000318881351
 43       0.000022312529
 44      -0.000046064081
 45      -0.000106058628
 46      -0.001440414961
 47      -0.000278020154
 48       0.000032531588
 49       0.000318001298
 50      -0.000046063960
 51      -0.000106057203
 52      -0.001440417137
 53      -0.000205808320
 54       0.000017704358
 55      -0.000369875781
 Sym=     1a
 Ene= -9.41578601635430E-01
 Spin= Alpha
 Occup= 2.000000
  1      -0.090589928488
  2      -0.200958548248
  3       0.301372846856
  4       0.354064618076
  5       0.060057979311
  6      -0.000000000214
  7       0.000000029267
  8       0.000000027126
  9      -0.000000001255
 10       0.000000090249
 11       0.000000084992
 12       0.000000000879
 13      -0.000000075106
 14      -0.000000072031
 15      -0.000000001815
 16      -0.000000004785
 17       0.000000000426
 18       0.000000004171
 19       0.000000004590
 20       0.000000009306
 21      -0.000000021397
 22       0.000000008761
 23      -0.000000016339
 24       0.000000022729
 25      -0.001847741280
 26      -0.006878941830
 27       0.000682085552
 28       0.000417763916
 29      -0.000279300168
 30       0.005328405436
 31      -0.001735068327
 32       0.081400209236
 33       0.097858552733
 34       0.015725592457
 35      -0.006655964341
 36       0.011937485951
 37      -0.000956040336
 38       0.081400237150
 39       0.097858516642
 40       0.015725702229
 41      -0.008991355322
 42      -0.010312816939
 43      -0.000721598900
 44       0.081400237733
 45       0.097858521565
 46       0.015725697244
 47       0.008991355225
 48      -0.001052088106
 49      -0.010284357714
 50       0.081400210161
 51       0.097858550106
 52       0.015725595864
 53       0.006655964677
 54      -0.000572564007
 55       0.011962012350
 Sym=     1a
 Ene= -5.44389011371563E-01
 Spin= Alpha
 Occup= 2.000000
  1       0.000000000299
  2       0.000000000563
  3      -0.000000001069
  4       0.000000007278
  5      -0.000000020939
  6      -0.292460925947
  7      -0.055223535570
  8       0.078435332830
  9      -0.250398407257
 10      -0.047281179953
 11       0.067154597828
 12      -0.098043374339
 13      -0.018512923297
 14       0.026294332323
 15       0.013832129355
 16      -0.008488647369
 17       0.000656335354
 18       0.008264215791
 19      -0.007455494287
 20       0.013104956906
 21      -0.008042400084
 22       0.000621834280
 23       0.007829752389
 24      -0.007063559682
 25      -0.000049107357
 26      -0.000404609332
 27       0.000277373188
 28       0.000438581286
 29      -0.000145328516
 30      -0.000529965770
 31       0.000266937365
 32      -0.050244367736
 33      -0.076157578883
 34      -0.033529622558
 35      -0.005043944775
 36      -0.009760302420
 37       0.003182578927
 38      -0.130233723470
 39      -0.197400686900
 40      -0.086909183686
 41       0.006070582345
 42       0.016052882606
 43       0.003792961047
 44       0.139999442569
 45       0.212203018413
 46       0.093426162181
 47       0.007237196771
 48      -0.003748343296
 49      -0.016585050219
 50       0.040478648679
 51       0.061355255448
 52       0.027012644924
 53      -0.005907546470
 54      -0.002099331550
 55       0.008977591116
 Sym=     1a
 Ene= -5.44388965525369E-01
 Spin= Alpha
 Occup= 2.000000
  1      -0.000000004351
  2      -0.000000009649
  3       0.000000016237
  4      -0.000000162457
  5       0.000000824286
  6      -0.026499978738
  7      -0.195364199935
  8      -0.236359120867
  9      -0.022688689231
 10      -0.167266456086
 11      -0.202365396004
 12      -0.008883700871
 13      -0.065492973560
 14      -0.079235876082
 15       0.004495502890
 16       0.014493126566
 17      -0.002772729162
 18      -0.003097551558
 19      -0.011838694405
 20       0.004259119313
 21       0.013731176673
 22      -0.002627046305
 23      -0.002934629675
 24      -0.011216301330
 25      -0.000208557532
 26      -0.000064036888
 27       0.000506016310
 28      -0.000654623750
 29       0.000020364552
 30      -0.000081603119
 31       0.000263404270
 32       0.079975599899
 33       0.121222415488
 34       0.053370181095
 35      -0.007932030732
 36       0.006346923510
 37      -0.008683121632
 38      -0.100439002082
 39      -0.152239777955
 40      -0.067026370050
 41       0.011138826624
 42       0.007424457648
 43      -0.006704334970
 44      -0.099381777288
 45      -0.150637319755
 46      -0.066320805187
 47      -0.012731799205
 48      -0.004948257537
 49       0.005912186100
 50       0.119845178438
 51       0.181654464441
 52       0.079976502353
 53       0.009738507156
 54      -0.007249114967
 55       0.011379568589
 Sym=     1a
 Ene= -5.44388956183326E-01
 Spin= Alpha
 Occup= 2.000000
  1       0.000000000627
  2       0.000000001213
  3      -0.000000001761
  4       0.000000025436
  5      -0.000000130875
  6      -0.092192669427
  7       0.231340095342
  8      -0.180879285978
  9      -0.078933339746
 10       0.198068218277
 11      -0.154864793272
 12      -0.030906025876
 13       0.077553214203
 14      -0.060636972379
 15       0.009248715559
 16       0.009409120747
 17       0.000731982908
 18       0.006093530478
 19       0.013265023281
 20       0.008762476119
 21       0.008914438156
 22       0.000693506577
 23       0.005773156689
 24       0.012567625229
 25      -0.000172774878
 26      -0.000334295517
 27      -0.000564551050
 28      -0.000337734578
 29       0.000207450066
 30      -0.000420699725
 31      -0.000119258526
 32      -0.147044814872
 33      -0.222882237863
 34      -0.098127947109
 35       0.010012818469
 36      -0.015817267751
 37      -0.003999772312
 38       0.059109652268
 39       0.089595115369
 40       0.039445730081
 41      -0.010051890970
 42      -0.000594597002
 43      -0.006434255687
 44      -0.032652493388
 45      -0.049492850904
 46      -0.021789954069
 47      -0.006891314239
 48       0.007960880223
 49      -0.001405938507
 50       0.120587655857
 51       0.182779999576
 52       0.080472257689
 53       0.007673160844
 54       0.006587115955
 55       0.013297285414
 Sym=     1a
 Ene= 1.49307832704219E-01
 Spin= Alpha
 Occup= 0.000000
  1      -0.040297488273
  2      -0.093637865574
  3       0.314813135494
  4      -0.678917366970
  5       5.978026529431
  6      -0.000000000768
  7       0.000000056401
  8       0.000000053700
  9       0.000000000237
 10       0.000000019547
 11       0.000000018052
 12      -0.000000003404
 13       0.000000492172
 14       0.000000463816
 15       0.000000000572
 16       0.000000005685
 17      -0.000000001746
 18      -0.000000001021
 19      -0.000000005652
 20       0.000000012715
 21       0.000000047394
 22      -0.000000009938
 23      -0.000000023907
 24      -0.000000044247
 25       0.007359865405
 26       0.027399972073
 27      -0.002716856133
 28      -0.001664031915
 29       0.001112500737
 30      -0.021223926848
 31       0.006911075624
 32      -0.011545130997
 33       0.226158304234
 34      -1.995385059768
 35      -0.023071412974
 36       0.041378606471
 37      -0.003313910504
 38      -0.011545163716
 39       0.226158620363
 40      -1.995386986880
 41      -0.031166527336
 42      -0.035747116065
 43      -0.002501272629
 44      -0.011545163833
 45       0.226158634482
 46      -1.995387009906
 47       0.031166527818
 48      -0.003646837816
 49      -0.035648468357
 50      -0.011545131317
 51       0.226158307913
 52      -1.995385093343
 53       0.023071413511
 54      -0.001984679975
 55       0.041463624560
 Sym=     1a
 Ene= 2.36767932939063E-01
 Spin= Alpha
 Occup= 0.000000
  1      -0.000000000761
  2      -0.000000001733
  3       0.000000004138
  4       0.000000002020
  5       0.000000031887
  6       0.154100632169
  7       0.067042831138
  8      -0.072309792954
  9      -0.083751642154
 10      -0.036436900542
 11       0.039299427474
 12       1.611077755767
 13       0.700913790407
 14      -0.755978343967
 15       0.012859492796
 16      -0.012356087564
 17       0.000517213615
 18       0.007503030832
 19      -0.012389000042
 20       0.072690000805
 21      -0.069844399512
 22       0.002923618227
 23       0.042411885888
 24      -0.070030431750
 25      -0.000091925282
 26      -0.007629372108
 27       0.010304693891
 28       0.012700653485
 29      -0.004824961066
 30      -0.010102388926
 31       0.007206868736
 32      -0.002670231464
 33       0.028053646071
 34      -0.208031830489
 35       0.006597404235
 36       0.008197224512
 37      -0.004560715849
 38      -0.034606119545
 39       0.363573685563
 40      -2.696087118067
 41      -0.032860112469
 42      -0.044088088986
 43      -0.007575887201
 44       0.035185563287
 45      -0.369661375679
 46       2.741230337139
 47      -0.033560811691
 48       0.008888859093
 49       0.044449907676
 50       0.002090786863
 51      -0.021965945375
 52       0.162888554576
 53       0.007116107394
 54       0.004071192013
 55      -0.007581015417
 Sym=     1a
 Ene= 2.36767990476088E-01
 Spin= Alpha
 Occup= 0.000000
  1      -0.000000024548
  2      -0.000000057036
  3       0.000000199955
  4      -0.000000400945
  5       0.000003082540
  6      -0.003146742860
  7      -0.130746546645
  8      -0.127929195261
  9       0.001710215993
 10       0.071059147755
 11       0.069527949726
 12      -0.032898314311
 13      -1.366918283397
 14      -1.337463665576
 15      -0.003355471663
 16      -0.015784560135
 17       0.003339586971
 18       0.004771813159
 19       0.015289054671
 20      -0.018967262745
 21      -0.089224319155
 22       0.018877413446
 23       0.026973335883
 24       0.086423413174
 25       0.004597392548
 26       0.000235754334
 27      -0.013992106231
 28       0.015545216645
 29       0.000000601564
 30       0.000304346503
 31      -0.006653544823
 32      -0.024227330251
 33       0.254533745190
 34      -1.887499266840
 35      -0.021871160623
 36       0.031271161216
 37      -0.010576459484
 38       0.025106469953
 39      -0.263769918667
 40       1.955990564750
 41       0.030176757294
 42       0.027196748591
 43      -0.005024745958
 44       0.024353784209
 45      -0.255862171049
 46       1.897350537956
 47      -0.029633624477
 48      -0.004179636569
 49       0.026223886015
 50      -0.025232964871
 51       0.265098979382
 52      -1.965846039861
 53       0.022404316386
 54      -0.009568712207
 55       0.033133252047
 Sym=     1a
 Ene= 2.36768039459100E-01
 Spin= Alpha
 Occup= 0.000000
  1       0.000000000503
  2       0.000000001193
  3      -0.000000004721
  4       0.000000011493
  5      -0.000000076117
  6      -0.098557328038
  7       0.109000186753
  8      -0.108976403854
  9       0.053564738065
 10      -0.059240322831
 11       0.059227396519
 12      -1.030389079460
 13       1.139566288646
 14      -1.139317617975
 15      -0.015100552977
 16      -0.010150318575
 17      -0.000606842089
 18      -0.008809621694
 19      -0.010911290767
 20      -0.085357907328
 21      -0.057376063534
 22      -0.003430256296
 23      -0.049797571426
 24      -0.061677556328
 25       0.005096956893
 26       0.010753059697
 27       0.010168908920
 28       0.007361486116
 29      -0.004109027919
 30       0.013666757468
 31       0.000342102143
 32       0.035231200566
 33      -0.370141010395
 34       2.744786967706
 35       0.025789754687
 36      -0.050206112883
 37      -0.001825881624
 38      -0.002722588696
 39       0.028603872992
 40      -0.212111961390
 41      -0.009040576036
 42       0.002581085672
 43      -0.006620143327
 44       0.002049416323
 45      -0.021531504269
 46       0.159666594776
 47      -0.008226535368
 48       0.006647292627
 49      -0.003521223812
 50      -0.034558027077
 51       0.363068625004
 52      -2.692341497560
 53       0.025187149259
 54       0.003696128722
 55       0.049240722878
 Sym=     1a
 Ene= 3.13736768602477E-01
 Spin= Alpha
 Occup= 0.000000
  1       0.000000000052
  2       0.000000000071
  3       0.000000000502
  4      -0.000000003664
  5       0.000000017275
  6       0.045989660543
  7      -0.056916773004
  8       0.058687076782
  9       0.093855522239
 10      -0.116155457552
 11       0.119768273910
 12      -0.927926484577
 13       1.148401028374
 14      -1.184120097981
 15      -0.017731462531
 16      -0.013590222642
 17      -0.000659932552
 18      -0.010242537964
 19      -0.014058281197
 20       0.116638587654
 21       0.089397276970
 22       0.004341077303
 23       0.067376008458
 24       0.092476191867
 25      -0.005448815779
 26      -0.010925423505
 27      -0.011199282490
 28      -0.008756655668
 29       0.004638730533
 30      -0.013861511517
 31      -0.000708375929
 32       0.043098497781
 33       0.699259761708
 34       0.487253277714
 35      -0.020445529222
 36       0.032350106362
 37      -0.011735138045
 38      -0.005424876022
 39      -0.088016944229
 40      -0.061330991412
 41      -0.005613900606
 42       0.012087508293
 43      -0.009741389328
 44       0.005385724307
 45       0.087381718888
 46       0.060888304376
 47      -0.005629455672
 48       0.009364916178
 49      -0.012361961482
 50      -0.043059346209
 51      -0.698624534619
 52      -0.486810608927
 53      -0.020434013760
 54       0.010704756324
 55      -0.032675190765
 Sym=     1a
 Ene= 3.13736784160898E-01
 Spin= Alpha
 Occup= 0.000000
  1      -0.000000009511
  2      -0.000000025257
  3       0.000000140482
  4      -0.000000521318
  5       0.000002612499
  6       0.004159783376
  7      -0.065619222040
  8      -0.066899586495
  9       0.008489268471
 10      -0.133915338705
 11      -0.136528322344
 12      -0.083931399644
 13       1.323988903607
 14       1.349822880922
 15       0.002834965126
 16       0.020171450187
 17      -0.004159012275
 18      -0.006622048740
 19      -0.018055643637
 20      -0.018648577403
 21      -0.132688910384
 22       0.027358213688
 23       0.043560229969
 24       0.118771031493
 25       0.004771895471
 26      -0.000439956740
 27      -0.014286386027
 28       0.017168672437
 29      -0.000252002884
 30      -0.000581207255
 31      -0.006564183527
 32       0.030909475441
 33       0.501496395753
 34       0.349448426165
 35      -0.009793896002
 36       0.027390458511
 37       0.009995933302
 38      -0.028449133516
 39      -0.461578073404
 40      -0.321634153621
 41       0.010600672143
 42       0.024050151827
 43       0.012208918913
 44      -0.032870758619
 45      -0.533317445585
 46      -0.371623307957
 47      -0.013762946523
 48       0.012613653089
 49       0.026240111472
 50       0.030410406535
 51       0.493399143889
 52       0.343806254524
 53       0.008241630452
 54       0.010316034232
 55       0.027376455251
 Sym=     1a
 Ene= 3.13736786031193E-01
 Spin= Alpha
 Occup= 0.000000
  1       0.000000000174
  2       0.000000000492
  3      -0.000000002715
  4       0.000000009112
  5      -0.000000047403
  6       0.081647978199
  7       0.035402521540
  8      -0.029648128604
  9       0.166626685995
 10       0.072249299991
 11      -0.060505764143
 12      -1.647398532812
 13      -0.714311809323
 14       0.598206330270
 15      -0.017092611669
 16       0.013236588624
 17      -0.000414751402
 18      -0.009444685093
 19       0.015663374732
 20       0.112436110616
 21      -0.087070957993
 22       0.002728258534
 23       0.062127638458
 24      -0.103034493108
 25      -0.000708868856
 26      -0.008711021249
 27       0.011228658315
 28       0.011931524541
 29      -0.004853903691
 30      -0.011500308449
 31       0.008041913638
 32       0.003826526424
 33       0.062084147259
 34       0.043260885655
 35      -0.014918757166
 36      -0.003962243648
 37       0.004846986329
 38       0.044595313346
 39       0.723544087079
 40       0.504175466430
 41      -0.031511902771
 42      -0.026303504705
 43       0.003586641121
 44      -0.041449145161
 45      -0.672498520424
 46      -0.468606217431
 47      -0.030261866518
 48      -0.004053764915
 49       0.023845497543
 50      -0.006972694190
 51      -0.113129711501
 52      -0.078830086606
 53      -0.015844113830
 54      -0.005804351069
 55       0.001322934076
 Sym=     1a
 Ene= 5.06685506881338E-01
 Spin= Alpha
 Occup= 0.000000
  1       0.045996933353
  2       0.083841437589
  3       0.516871786636
  4      -4.551509352000
  5      15.051049777983
  6       0.000000000684
  7      -0.000000004300
  8      -0.000000005354
  9       0.000000002130
 10      -0.000000154077
 11      -0.000000149243
 12       0.000000009446
 13       0.000000081030
 14       0.000000069023
 15       0.000000000221
 16      -0.000000001697
 17       0.000000001391
 18      -0.000000000391
 19       0.000000001406
 20      -0.000000002129
 21       0.000000024663
 22      -0.000000007087
 23       0.000000002221
 24      -0.000000024252
 25       0.014352490287
 26       0.053432737815
 27      -0.005298151212
 28      -0.003245026305
 29       0.002169489987
 30      -0.041388820502
 31       0.013477300886
 32       0.011584346818
 33       0.116438325586
 34      -3.538342068656
 35      -0.032962533531
 36       0.059118330120
 37      -0.004734650696
 38       0.011584380812
 39       0.116438819035
 40      -3.538342497840
 41      -0.044528131529
 42      -0.051072506698
 43      -0.003573617318
 44       0.011584380785
 45       0.116438826103
 46      -3.538342482285
 47       0.044528131671
 48      -0.005210304942
 49      -0.050931565682
 50       0.011584347280
 51       0.116438333151
 52      -3.538342076870
 53       0.032962533989
 54      -0.002835556844
 55       0.059239796862
 Sym=     1a
 Ene= 6.59572356558003E-01
 Spin= Alpha
 Occup= 0.000000
  1      -0.000000000353
  2      -0.000000000776
  3      -0.000000001368
  4       0.000000009119
  5       0.000000041433
  6      -0.263492883404
  7      -0.080317285017
  8       0.085517679048
  9      -1.413876555809
 10      -0.430974475834
 11       0.458879273920
 12       1.791599686010
 13       0.546111154930
 14      -0.581470830316
 15      -0.000201587308
 16       0.000142218635
 17      -0.000007761637
 18      -0.000116948000
 19       0.000144213576
 20       0.054417384722
 21      -0.038390777933
 22       0.002095216281
 23       0.031569445109
 24      -0.038929299220
 25      -0.001693781021
 26      -0.017470434344
 27       0.016738544588
 28       0.021644566992
 29      -0.007931321167
 30      -0.022969971670
 31       0.013595489606
 32       0.016247432858
 33       0.321869978602
 34      -0.521421165611
 35      -0.032823896661
 36       0.002060359970
 37       0.007960953703
 38       0.071429936878
 39       1.415064264805
 40      -2.292368420663
 41      -0.061223597928
 42      -0.047421462278
 43       0.006046191187
 44      -0.072076997190
 45      -1.427882880701
 46       2.313134186900
 47      -0.061532950245
 48      -0.004220435549
 49       0.048201547407
 50      -0.015600373809
 51      -0.309051401656
 52       0.500655368717
 53      -0.032594894763
 54      -0.007777603710
 55      -0.001135652577
 Sym=     1a
 Ene= 6.59572425441596E-01
 Spin= Alpha
 Occup= 0.000000
  1       0.000000000974
  2       0.000000004892
  3       0.000000001172
  4       0.000000109082
  5      -0.000002121092
  6      -0.003962913364
  7      -0.204030940755
  8      -0.203834010315
  9      -0.021264608412
 10      -1.094809756451
 11      -1.093753024598
 12       0.026945539221
 13       1.387292726220
 14       1.385953682457
 15      -0.000045021397
 16      -0.000214492942
 17       0.000044893319
 18       0.000064167965
 19       0.000203045506
 20       0.012154083013
 21       0.057901990679
 22      -0.012116785308
 23      -0.017323256882
 24      -0.054811716353
 25      -0.008839356979
 26      -0.000467447195
 27       0.026401108134
 28      -0.029970215995
 29       0.000131464531
 30      -0.000596597777
 31       0.012575983019
 32      -0.050441555731
 33      -0.999273603883
 34       1.618798877290
 35       0.017444678153
 36      -0.052981400448
 37      -0.018379639379
 38       0.052092839632
 39       1.031986450723
 40      -1.671791101978
 41      -0.025312181956
 42      -0.049529398881
 43      -0.022942592708
 44       0.051830330989
 45       1.026786060323
 46      -1.663366606639
 47       0.024372305075
 48      -0.023863556684
 49      -0.049286784935
 50      -0.053481562719
 51      -1.059497737028
 52       1.716360463241
 53      -0.019334946037
 54      -0.019335833885
 55      -0.054960531694
 Sym=     1a
 Ene= 6.59572458035742E-01
 Spin= Alpha
 Occup= 0.000000
  1       0.000000000036
  2       0.000000000180
  3      -0.000000000156
  4      -0.000000000967
  5      -0.000000039788
  6       0.117253705769
  7      -0.187385009103
  8       0.185286416122
  9       0.629171631933
 10      -1.005489367745
 11       0.994228548560
 12      -0.797257409025
 13       1.274109956359
 14      -1.259840758228
 15       0.000174447269
 16       0.000158001573
 17       0.000007387782
 18       0.000102502736
 19       0.000171562762
 20      -0.047092894716
 21      -0.042652585546
 22      -0.001994383871
 23      -0.027671177021
 24      -0.046313456128
 25       0.009520626701
 26       0.018109634240
 27       0.022346345017
 28       0.017276014173
 29      -0.009130954867
 30       0.022900816543
 31       0.002805513241
 32      -0.072767957258
 33      -1.441571364574
 34       2.335309182096
 35       0.037801192108
 36      -0.065442522717
 37       0.022737225101
 38       0.016959070673
 39       0.335968100592
 40      -0.544259770387
 41       0.003939817964
 42      -0.028553295433
 43       0.018387380931
 44      -0.014900773159
 45      -0.295192133407
 46       0.478203757171
 47       0.004923866588
 48      -0.018420137045
 49       0.027186441372
 50       0.070709661328
 51       1.400795429399
 52      -2.269253141727
 53       0.037072735826
 54      -0.021406440032
 55       0.064012624703
 Sym=     1a
 Ene= 7.26953975074319E-01
 Spin= Alpha
 Occup= 0.000000
  1       0.062339512116
  2       0.150139788956
  3       0.077791608320
  4      -2.504662504433
  5       0.715261602405
  6      -0.000000001905
  7       0.000000035587
  8       0.000000034857
  9      -0.000000007113
 10       0.000000150905
 11       0.000000150793
 12       0.000000011389
 13      -0.000000287971
 14      -0.000000282381
 15      -0.000000001320
 16       0.000000004067
 17       0.000000000034
 18       0.000000002279
 19      -0.000000004173
 20       0.000000090142
 21       0.000000058185
 22      -0.000000037269
 23      -0.000000158919
 24      -0.000000057048
 25       0.018779460195
 26       0.069913840350
 27      -0.006932354579
 28      -0.004245929380
 29       0.002838660356
 30      -0.054155027811
 31       0.017634314102
 32       0.054069886628
 33       1.347463278430
 34      -0.545692862365
 35      -0.027729784932
 36       0.049733393450
 37      -0.003983015541
 38       0.054069847493
 39       1.347463020134
 40      -0.545692215363
 41      -0.037459331703
 42      -0.042964780587
 43      -0.003006297682
 44       0.054069845731
 45       1.347463005285
 46      -0.545692186936
 47       0.037459331039
 48      -0.004383161400
 49      -0.042846213643
 50       0.054069886536
 51       1.347463278653
 52      -0.545692853992
 53       0.027729783597
 54      -0.002385401104
 55       0.049835576990
 Sym=     1a
 Ene= 7.86417198926865E-01
 Spin= Alpha
 Occup= 0.000000
  1       0.000000004138
  2       0.000000009986
  3       0.000000032455
  4      -0.000000288127
  5       0.000000086662
  6       0.000000000909
  7      -0.000000027774
  8      -0.000000031691
  9       0.000000007336
 10      -0.000000067746
 11      -0.000000085416
 12      -0.000000003948
 13       0.000000033228
 14       0.000000050686
 15       0.010049220869
 16      -0.006742137449
 17      -0.029496451427
 18      -0.015512153319
 19       0.006529194724
 20      -0.276554266252
 21       0.185543424898
 22       0.811741453096
 23       0.426894012870
 24      -0.179683243861
 25       0.000000004362
 26       0.000000007797
 27      -0.000000000601
 28      -0.000000002850
 29       0.000000000335
 30      -0.000000005581
 31       0.000000005011
 32       0.000000007462
 33       0.000000063170
 34       0.000000023506
 35       0.009245049961
 36       0.004113017918
 37      -0.013007497880
 38       0.000000005755
 39       0.000000220656
 40      -0.000000137050
 41       0.005278202992
 42      -0.005620979253
 43       0.014564653535
 44       0.000000006071
 45       0.000000249443
 46      -0.000000168458
 47      -0.005278201904
 48       0.014376822280
 49      -0.006085356202
 50       0.000000007412
 51       0.000000065317
 52       0.000000032981
 53      -0.009245049848
 54      -0.012868847300
 55       0.004528212364
 Sym=     1a
 Ene= 7.86417201545042E-01
 Spin= Alpha
 Occup= 0.000000
  1      -0.000000003450
  2      -0.000000009207
  3      -0.000000031927
  4       0.000000292336
  5      -0.000000022793
  6       0.000000000044
  7      -0.000000066099
  8      -0.000000064867
  9       0.000000007733
 10      -0.000000079898
 11      -0.000000078365
 12      -0.000000005298
 13       0.000000076321
 14       0.000000076605
 15      -0.014241433019
 16       0.003425078886
 17      -0.020017151078
 18       0.025951943008
 19      -0.003316901666
 20       0.391923825862
 21      -0.094258098709
 22       0.550871407133
 23      -0.714196724303
 24       0.091281062922
 25      -0.000000002555
 26      -0.000000008530
 27      -0.000000001911
 28       0.000000004424
 29      -0.000000000310
 30       0.000000007033
 31      -0.000000005198
 32      -0.000000002004
 33      -0.000000190103
 34       0.000000146038
 35      -0.011046183146
 36      -0.006964134628
 37      -0.010053139407
 38      -0.000000011910
 39      -0.000000166782
 40      -0.000000027124
 41      -0.011258870298
 42       0.009280100607
 43       0.007661690795
 44      -0.000000011670
 45      -0.000000152707
 46      -0.000000040866
 47       0.011258871388
 48       0.007955474105
 49       0.009029517241