[Molden Format]
[Title]
 Molden file created by orca_2mkl for BaseName=test5

[Atoms] AU
C    1   6         12.5391157516         6.1231098528        10.4796002644 
H    2   1         13.5414906417         4.3253494654        10.6235785552 
H    3   1         13.8931946382         7.6761997971        10.5882720800 
H    4   1         11.1850368651         6.2815525515        12.0284042721 
H    5   1         11.5367408634         6.2093375933         8.6781461483 
[GTO]
  1 0
s   8 1.0 
    67025.0710290000         0.2107535794
    10039.9865380000         0.3944204850
     2284.9316911000         0.6814886693
      647.1412213000         1.1075026371
      211.0947233500         1.6902157449
       76.1776438620         2.3716464928
       29.6338391630         2.8799049310
       12.1877850810         2.7511958419
s   2 1.0 
       53.0260062990         1.2795470069
       15.2585027760         5.1103194100
s   1 1.0 
        5.2403957464         2.4685001408
s   1 1.0 
        2.2905022379         1.3269609194
s   1 1.0 
        0.6967328301         0.5435128276
s   1 1.0 
        0.2759933736         0.2713839026
s   1 1.0 
        0.1073988439         0.1337087402
p   5 1.0 
      105.1255508200         1.1978793681
       24.8844610660         1.5485209137
        7.8637230826         1.6674744875
        2.8407001835         1.5496517883
        1.1227137335         1.1575938834
p   1 1.0 
        0.4605072555         0.5407364982
p   1 1.0 
        0.1893753091         0.1780714443
p   1 1.0 
        0.0759837916         0.0568645084
d   1 1.0 
        1.8480000000         8.3502316859
d   1 1.0 
        0.6490000000         1.3378219059
d   1 1.0 
        0.2280000000         0.2144648217
f   1 1.0 
        1.4190000000        12.5302711484
f   1 1.0 
        0.4850000000         1.1192290943
g   1 1.0 
        1.0110000000         6.7847699297

  2 0
s   4 1.0 
      190.6916900000         0.1953955194
       28.6055320000         0.3636605440
        6.5095943000         0.6128365563
        1.8412455000         0.9148894972
s   1 1.0 
        0.5985372500         0.4849851938
s   1 1.0 
        0.2139762400         0.2242251153
s   1 1.0 
        0.0803162860         0.1075258304
p   1 1.0 
        2.2920000000         4.0198361784
p   1 1.0 
        0.8380000000         1.1428654696
p   1 1.0 
        0.2920000000         0.3059628180
d   1 1.0 
        2.0620000000        10.1152178423
d   1 1.0 
        0.6620000000         1.3850694971
f   1 1.0 
        1.3970000000        12.0973986675

  3 0
s   4 1.0 
      190.6916900000         0.1953955194
       28.6055320000         0.3636605440
        6.5095943000         0.6128365563
        1.8412455000         0.9148894972
s   1 1.0 
        0.5985372500         0.4849851938
s   1 1.0 
        0.2139762400         0.2242251153
s   1 1.0 
        0.0803162860         0.1075258304
p   1 1.0 
        2.2920000000         4.0198361784
p   1 1.0 
        0.8380000000         1.1428654696
p   1 1.0 
        0.2920000000         0.3059628180
d   1 1.0 
        2.0620000000        10.1152178423
d   1 1.0 
        0.6620000000         1.3850694971
f   1 1.0 
        1.3970000000        12.0973986675

  4 0
s   4 1.0 
      190.6916900000         0.1953955194
       28.6055320000         0.3636605440
        6.5095943000         0.6128365563
        1.8412455000         0.9148894972
s   1 1.0 
        0.5985372500         0.4849851938
s   1 1.0 
        0.2139762400         0.2242251153
s   1 1.0 
        0.0803162860         0.1075258304
p   1 1.0 
        2.2920000000         4.0198361784
p   1 1.0 
        0.8380000000         1.1428654696
p   1 1.0 
        0.2920000000         0.3059628180
d   1 1.0 
        2.0620000000        10.1152178423
d   1 1.0 
        0.6620000000         1.3850694971
f   1 1.0 
        1.3970000000        12.0973986675

  5 0
s   4 1.0 
      190.6916900000         0.1953955194
       28.6055320000         0.3636605440
        6.5095943000         0.6128365563
        1.8412455000         0.9148894972
s   1 1.0 
        0.5985372500         0.4849851938
s   1 1.0 
        0.2139762400         0.2242251153
s   1 1.0 
        0.0803162860         0.1075258304
p   1 1.0 
        2.2920000000         4.0198361784
p   1 1.0 
        0.8380000000         1.1428654696
p   1 1.0 
        0.2920000000         0.3059628180
d   1 1.0 
        2.0620000000        10.1152178423
d   1 1.0 
        0.6620000000         1.3850694971
f   1 1.0 
        1.3970000000        12.0973986675

[5D]
[7F]
[9G]
[MO]
 Sym=     1a
 Ene= -1.12073727798730E+01
 Spin= Alpha
 Occup= 2.000000
  1       0.545999150274
  2      -0.000416820984
  3       0.370443253634
  4       0.175529122908
  5       0.013153209365
  6      -0.004294303030
  7      -0.000516732409
  8       0.000000000103
  9      -0.000000001336
 10      -0.000000001368
 11      -0.000000000230
 12       0.000000003203
 13       0.000000002693
 14       0.000000000398
 15       0.000000003900
 16       0.000000003844
 17      -0.000000000230
 18      -0.000000000283
 19      -0.000000000363
 20      -0.000000000137
 21       0.000000000094
 22      -0.000000000130
 23       0.000000000068
 24      -0.000000000056
 25      -0.000000000258
 26      -0.000000000450
 27       0.000000000372
 28       0.000000001308
 29       0.000000000464
 30      -0.000000000192
 31      -0.000000001571
 32       0.000000000492
 33       0.000000000605
 34       0.000000001289
 35      -0.000046662576
 36      -0.000173719508
 37       0.000017225259
 38       0.000010550066
 39      -0.000007053480
 40       0.000134562501
 41      -0.000043817153
 42      -0.000024501574
 43      -0.000091216115
 44       0.000009044457
 45       0.000005539847
 46      -0.000003703726
 47       0.000070655485
 48      -0.000023007583
 49       0.000016036218
 50       0.000009473120
 51       0.000000922172
 52       0.000060412770
 53      -0.000012974363
 54       0.000017012604
 55      -0.000006243434
 56       0.000032382281
 57      -0.000014101413
 58       0.000132400954
 59       0.000238706549
 60       0.001024354993
 61      -0.000026083773
 62      -0.000023285660
 63       0.000041763051
 64      -0.000003344667
 65      -0.000013098633
 66       0.000023492029
 67      -0.000001881775
 68      -0.000210916656
 69       0.000378278792
 70      -0.000030295689
 71      -0.000026210801
 72       0.000003123499
 73      -0.000005602046
 74      -0.000024101361
 75      -0.000039001095
 76      -0.000022045873
 77       0.000002627461
 78      -0.000004712118
 79      -0.000020271392
 80      -0.000032803921
 81       0.000006452142
 82       0.000018521003
 83      -0.000029931888
 84       0.000003920732
 85       0.000006613929
 86      -0.000046292826
 87       0.000002501016
 88       0.000132400924
 89       0.000238704529
 90       0.001024345967
 91      -0.000026082721
 92      -0.000031455772
 93      -0.000036078955
 94      -0.000002524543
 95      -0.000017694372
 96      -0.000020294370
 97      -0.000001420140
 98      -0.000284918548
 99      -0.000326793344
100      -0.000022866559
101      -0.000026378038
102       0.000003184744
103       0.000003652837
104      -0.000006260797
105       0.000045515097
106      -0.000022186338
107       0.000002678936
108       0.000003072608
109      -0.000005265687
110       0.000038282429
111       0.000005013414
112       0.000024579694
113       0.000025775831
114       0.000000674088
115      -0.000005677709
116      -0.000039115504
117       0.000025151302
118       0.000132400933
119       0.000238704012
120       0.001024346649
121      -0.000026082970
122       0.000031455808
123      -0.000003680624
124      -0.000035979380
125       0.000017694031
126      -0.000002070776
127      -0.000020238334
128       0.000284918873
129      -0.000033339132
130      -0.000325892011
131       0.000018361848
132      -0.000045389472
133       0.000005311116
134       0.000019569782
135      -0.000004643383
136       0.000015443975
137      -0.000038176897
138       0.000004467478
139       0.000016460083
140      -0.000003905791
141       0.000004440733
142       0.000043659979
143      -0.000005074177
144      -0.000035392166
145       0.000008448502
146      -0.000013742597
147       0.000004949596
148       0.000132400838
149       0.000238706302
150       0.001024354585
151      -0.000026084042
152       0.000023285731
153      -0.000002003138
154       0.000041848796
155       0.000013098473
156      -0.000001126760
157       0.000023540196
158       0.000210916177
159      -0.000018143916
160       0.000379055779
161       0.000034226936
162       0.000039081204
163      -0.000003361908
164       0.000010792461
165      -0.000001870620
166       0.000028788066
167       0.000032871048
168      -0.000002827750
169       0.000009077459
170      -0.000001573413
171       0.000020753267
172       0.000049718461
173      -0.000004302443
174       0.000022508886
175      -0.000003843095
176      -0.000006565189
177       0.000001822168
 Sym=     1a
 Ene= -9.41459808127224E-01
 Spin= Alpha
 Occup= 2.000000
  1      -0.098952037773
  2      -0.013195861039
  3      -0.119691387716
  4      -0.079730318675
  5       0.226344465243
  6       0.411712910985
  7       0.099815586970
  8      -0.000000000209
  9       0.000000004916
 10       0.000000004368
 11      -0.000000000099
 12       0.000000016424
 13       0.000000012739
 14      -0.000000002881
 15       0.000000062026
 16       0.000000062376
 17       0.000000003021
 18      -0.000000060497
 19      -0.000000057916
 20      -0.000000000842
 21      -0.000000000676
 22       0.000000000144
 23       0.000000001631
 24       0.000000000322
 25      -0.000000000822
 26      -0.000000007169
 27       0.000000001859
 28       0.000000004152
 29       0.000000008510
 30       0.000000004683
 31      -0.000000032151
 32       0.000000009290
 33      -0.000000006605
 34       0.000000029297
 35      -0.000864769559
 36      -0.003219442609
 37       0.000319225418
 38       0.000195519837
 39      -0.000130716454
 40       0.002493769535
 41      -0.000812037404
 42      -0.001892452379
 43      -0.007045395551
 44       0.000698586684
 45       0.000427877134
 46      -0.000286058559
 47       0.005457339470
 48      -0.001777054540
 49       0.000274696991
 50       0.000162274237
 51       0.000015796004
 52       0.001034848501
 53      -0.000222242181
 54       0.000291416856
 55      -0.000106945099
 56       0.000554694227
 57      -0.000241554311
 58       0.047459921519
 59       0.078421069546
 60       0.061530010966
 61       0.005150768748
 62      -0.001756592042
 63       0.003150449829
 64      -0.000252312036
 65      -0.003497897307
 66       0.006273481345
 67      -0.000502426924
 68      -0.001419526914
 69       0.002545949467
 70      -0.000203891845
 71      -0.000359404599
 72       0.000042829712
 73      -0.000076815144
 74      -0.000330479298
 75      -0.000534785641
 76      -0.000250344384
 77       0.000029832418
 78      -0.000053504494
 79      -0.000230198280
 80      -0.000372506290
 81      -0.000018729274
 82      -0.000051677761
 83       0.000097332833
 84      -0.000013420711
 85      -0.000021336698
 86       0.000144877120
 87      -0.000005911083
 88       0.047459927280
 89       0.078421065292
 90       0.061529883118
 91       0.005150880117
 92      -0.002372929309
 93      -0.002721682624
 94      -0.000190439878
 95      -0.004725205121
 96      -0.005419672145
 97      -0.000379221144
 98      -0.001917596934
 99      -0.002199415152
100      -0.000153890406
101      -0.000361697274
102       0.000043669565
103       0.000050087844
104      -0.000085849039
105       0.000624105689
106      -0.000251937948
107       0.000030416665
108       0.000034887789
109      -0.000059797218
110       0.000434719854
111      -0.000014007521
112      -0.000071562609
113      -0.000085498906
114      -0.000002765215
115       0.000019003849
116       0.000121321764
117      -0.000080248664
118       0.047459927779
119       0.078421064770
120       0.061529882533
121       0.005150880501
122       0.002372929240
123      -0.000277659865
124      -0.002714171811
125       0.004725205331
126      -0.000552901554
127      -0.005404715972
128       0.001917597137
129      -0.000224375868
130      -0.002193347091
131       0.000251779169
132      -0.000622383334
133       0.000072825964
134       0.000268341685
135      -0.000063669852
136       0.000175375442
137      -0.000433520236
138       0.000050725720
139       0.000186912762
140      -0.000044347802
141      -0.000012127928
142      -0.000134183392
143       0.000015750054
144       0.000115603113
145      -0.000027357549
146       0.000038048374
147      -0.000013947403
148       0.047459921800
149       0.078421067063
150       0.061530009816
151       0.005150772835
152       0.001756592124
153      -0.000151108168
154       0.003156922733
155       0.003497895924
156      -0.000300899894
157       0.006286370031
158       0.001419525969
159      -0.000122103937
160       0.002551179210
161       0.000469322544
162       0.000535884350
163      -0.000046098812
164       0.000147986579
165      -0.000025650599
166       0.000326909724
167       0.000373270487
168      -0.000032108064
169       0.000103078834
170      -0.000017865757
171      -0.000065665248
172      -0.000154067194
173       0.000013217509
174      -0.000074426641
175       0.000012983010
176       0.000014492192
177      -0.000003683060
 Sym=     1a
 Ene= -5.44234484054418E-01
 Spin= Alpha
 Occup= 2.000000
  1      -0.000000000004
  2       0.000000000017
  3      -0.000000000020
  4       0.000000000176
  5      -0.000000002058
  6       0.000000004788
  7       0.000000015412
  8       0.219466434260
  9       0.011317835705
 10      -0.029067284957
 11       0.223691779396
 12       0.011535760166
 13      -0.029626929722
 14       0.165502026877
 15       0.008535006477
 16      -0.021920076552
 17       0.040451506410
 18       0.002086075409
 19      -0.005357571569
 20      -0.006034724305
 21       0.002514569514
 22      -0.000287319064
 23      -0.003607418070
 24       0.002016194425
 25      -0.017082842442
 26       0.007118143975
 27      -0.000813329388
 28      -0.010211726865
 29       0.005707364752
 30      -0.013109101098
 31       0.005462388246
 32      -0.000624135194
 33      -0.007836317104
 34       0.004379774032
 35       0.000168319231
 36       0.000930503515
 37      -0.000362638222
 38      -0.000726998859
 39       0.000212606711
 40       0.001212419542
 41      -0.000496853585
 42       0.000089115578
 43       0.000492652563
 44      -0.000192000472
 45      -0.000384911340
 46       0.000112565168
 47       0.000641913723
 48      -0.000263059304
 49       0.000458333341
 50      -0.000072549619
 51      -0.000007304113
 52      -0.000398392977
 53      -0.000010244949
 54      -0.000084408861
 55       0.000037281934
 56       0.000523668946
 57      -0.000141145091
 58       0.042411742606
 59       0.081613993777
 60       0.096078371459
 61       0.029428671560
 62       0.000361083182
 63       0.002543972839
 64      -0.000425698135
 65       0.002070866800
 66       0.007520539338
 67      -0.001383613847
 68       0.004424815967
 69       0.009704790649
 70      -0.002004048727
 71      -0.000414857068
 72       0.000089562441
 73      -0.000207623907
 74      -0.000934526075
 75      -0.000155123420
 76      -0.000486204421
 77       0.000172320096
 78      -0.000440259399
 79      -0.002011992788
 80       0.000589791293
 81       0.000076146233
 82      -0.000033394738
 83      -0.000134426029
 84       0.000066560810
 85       0.000055664166
 86      -0.000045822414
 87       0.000465353422
 88       0.067612346937
 89       0.130108142559
 90       0.153166697168
 91       0.046915051602
 92      -0.001217775496
 93      -0.003291563216
 94      -0.000465658897
 95      -0.002564221640
 96      -0.009610994874
 97      -0.001500925967
 98      -0.001499940010
 99      -0.012193486493
100      -0.002154004854
101      -0.000635544735
102       0.000159468062
103       0.000189223938
104      -0.000706762783
105       0.000940301247
106      -0.000693422867
107       0.000318731907
108       0.000382084020
109      -0.001739386729
110       0.000750260332
111       0.000082505115
112       0.000050380592
113       0.000147028591
114       0.000018730342
115      -0.000083446994
116      -0.000320721436
117      -0.000239418837
118      -0.073863250576
119      -0.142136915622
120      -0.167327312475
121      -0.051252454624
122      -0.001490283240
123       0.000465989447
124       0.003454032642
125      -0.003364231932
126       0.001420145415
127       0.010006211239
128      -0.002522550032
129       0.001906968611
130       0.012554892151
131      -0.000925705490
132       0.001042437369
133      -0.000215901945
134      -0.000256322759
135       0.000158653170
136      -0.001780425863
137       0.000868569897
138      -0.000367541072
139       0.000171175482
140       0.000236872762
141       0.000252499277
142      -0.000325704678
143       0.000070928983
144      -0.000011623698
145      -0.000070491340
146      -0.000016424957
147      -0.000037493188
148      -0.036160838814
149      -0.069585225750
150      -0.081917774537
151      -0.025091265602
152       0.000562810875
153       0.000189591721
154      -0.002326371438
155       0.002663084393
156       0.000608719016
157      -0.006963473073
158       0.005181812544
159       0.000869766425
160      -0.009136499775
161      -0.000979985319
162      -0.000059712441
163       0.000093559383
164       0.000130527881
165       0.000043797170
166      -0.002007811145
167       0.000710403198
168       0.000189192142
169       0.000610529803
170       0.000082829674
171      -0.000470708804
172      -0.000020528973
173       0.000044783358
174       0.000183572471
175       0.000023045703
176      -0.000046031493
177      -0.000012635629
 Sym=     1a
 Ene= -5.44234453066674E-01
 Spin= Alpha
 Occup= 2.000000
  1       0.000000000552
  2       0.000000000112
  3       0.000000001143
  4       0.000000000808
  5      -0.000000041748
  6       0.000000221211
  7       0.000000504392
  8      -0.017805755086
  9      -0.124150642011
 10      -0.182778733897
 11      -0.018148558095
 12      -0.126540847562
 13      -0.186297666591
 14      -0.013427545619
 15      -0.093623494362
 16      -0.137835630653
 17      -0.003281863769
 18      -0.022882898924
 19      -0.033688957619
 20       0.001896869535
 21       0.006107145563
 22      -0.001068453822
 23      -0.001110428516
 24      -0.004078240636
 25       0.005369575965
 26       0.017287845668
 27      -0.003024531872
 28      -0.003143354536
 29      -0.011544510032
 30       0.004120532362
 31       0.013266467790
 32      -0.002320999280
 33      -0.002412137712
 34      -0.008859112957
 35      -0.000447846441
 36      -0.000161163901
 37       0.000901272969
 38      -0.001409377243
 39       0.000087692348
 40      -0.000203463170
 41       0.000491888756
 42      -0.000237118485
 43      -0.000085340146
 44       0.000477182727
 45      -0.000746197329
 46       0.000046427455
 47      -0.000107715579
 48       0.000260428023
 49       0.000148110275
 50       0.000581495987
 51       0.000020358617
 52       0.000045678169
 53       0.000349823785
 54      -0.000287232796
 55       0.000116646794
 56      -0.000136653228
 57      -0.000277737875
 58       0.038847287131
 59       0.074754791561
 60       0.088003244412
 61       0.026955522842
 62      -0.001394010847
 63       0.001269932350
 64      -0.001620694512
 65      -0.004174445350
 66       0.003156348410
 67      -0.005599765607
 68      -0.005480164074
 69       0.003028887756
 70      -0.008638439670
 71      -0.000230568485
 72       0.000434326288
 73      -0.000628213291
 74      -0.000074150220
 75      -0.000634519956
 76      -0.000019074338
 77       0.001156869566
 78      -0.001643744271
 79       0.000371517009
 80      -0.000856487465
 81       0.000282376365
 82       0.000032971220
 83       0.000064902828
 84       0.000133965126
 85       0.000344971841
 86      -0.000092074907
 87      -0.000161883717
 88      -0.051380893912
 89      -0.098873557242
 90      -0.116396811529
 91      -0.035652454660
 92       0.002099607456
 93       0.001590628543
 94      -0.001260854278
 95       0.006081874190
 96       0.004097849577
 97      -0.004543370304
 98       0.007629909639
 99       0.004232391106
100      -0.007288133738
101       0.000515249304
102       0.000399720350
103       0.000383946859
104      -0.000132613266
105      -0.000866784101
106       0.000617171168
107       0.001236020150
108       0.001203182163
109      -0.000575865263
110      -0.001002214858
111       0.000236964865
112      -0.000155126001
113      -0.000067968795
114       0.000007302643
115      -0.000322630655
116       0.000041352161
117      -0.000210916486
118      -0.060463703877
119      -0.116351837706
120      -0.136972768881
121      -0.041954839028
122      -0.002776254065
123      -0.000670096313
124       0.001574352113
125      -0.008232346527
126      -0.002539034512
127       0.003780035925
128      -0.010667207944
129      -0.004251186795
130       0.003351243870
131       0.000020656981
132       0.001048517353
133       0.000193971353
134      -0.000661899508
135      -0.000181169054
136       0.000749352200
137       0.001265380774
138       0.000748280210
139      -0.001138954826
140      -0.000689185859
141      -0.000260447332
142      -0.000033668305
143      -0.000107885275
144       0.000243773811
145       0.000187328597
146       0.000179551731
147       0.000092214099
148       0.072997308260
149       0.140470529296
150       0.165365639623
151       0.050651717433
152       0.002215410133
153      -0.001181177036
154       0.002793103289
155       0.006421831720
156      -0.004039431936
157       0.007357936944
158       0.008064397837
159      -0.006169034319
160       0.007924635738
161       0.000623838694
162       0.001109002627
163      -0.000473083777
164       0.000324721977
165      -0.000315240602
166       0.000214087598
167       0.001369233040
168      -0.001187284713
169       0.000429178640
170      -0.000809385288
171      -0.000100428235
172       0.000212848253
173      -0.000207954520
174       0.000113651731
175      -0.000240698855
176      -0.000056834852
177       0.000106536436
 Sym=     1a
 Ene= -5.44234448179284E-01
 Spin= Alpha
 Occup= 2.000000
  1      -0.000000000108
  2      -0.000000000081
  3      -0.000000000058
  4      -0.000000000632
  5       0.000000011544
  6      -0.000000057707
  7      -0.000000135546
  8      -0.025611617746
  9       0.183294887488
 10      -0.122006226628
 11      -0.026104675660
 12       0.186823749935
 13      -0.124355131982
 14      -0.019314128931
 15       0.138224847585
 16      -0.092006313543
 17      -0.004720469126
 18       0.033784079806
 19      -0.022487630571
 20       0.002425766421
 21       0.003694063635
 22       0.000336231143
 23       0.001877599095
 24       0.006060789184
 25       0.006866748035
 26       0.010456996027
 27       0.000951788245
 28       0.005315023625
 29       0.017156620762
 30       0.005269487913
 31       0.008024541992
 32       0.000730394035
 33       0.004078692658
 34       0.013165751989
 35      -0.000285988625
 36      -0.000504644193
 37      -0.001314855185
 38      -0.000706510172
 39       0.000460341837
 40      -0.000627363567
 41      -0.000382442799
 42      -0.000151417872
 43      -0.000267183807
 44      -0.000696153665
 45      -0.000374061380
 46       0.000243726649
 47      -0.000332163830
 48      -0.000202481620
 49       0.000019297932
 50       0.000409136331
 51      -0.000153992195
 52      -0.000042120651
 53      -0.000475766947
 54      -0.000217897468
 55       0.000033989541
 56       0.000079962004
 57       0.000449708144
 58      -0.080884566245
 59      -0.155648183694
 60      -0.183233346014
 61      -0.056124620314
 62       0.002408421548
 63      -0.003236862820
 64      -0.000586691766
 65       0.006952513358
 66      -0.008658331310
 67      -0.002284306053
 68       0.008679517716
 69      -0.009582701894
 70      -0.003908207855
 71       0.000759125881
 72       0.000125977453
 73      -0.000178178934
 74       0.000474247611
 75       0.001231928769
 76       0.000832538410
 77       0.000515292378
 78      -0.000785924445
 79       0.000131832756
 80       0.001529678639
 81       0.000123012217
 82      -0.000168493227
 83       0.000124179096
 84       0.000082982767
 85       0.000157437501
 86       0.000228063574
 87       0.000135533561
 88       0.051368803739
 89       0.098850291508
 90       0.116369390734
 91       0.035643952709
 92      -0.002441286186
 93      -0.001123863225
 94      -0.001141351164
 95      -0.007284918947
 96      -0.002455134577
 97      -0.003912634864
 98      -0.009519382358
 99      -0.001653507685
100      -0.005989605663
101      -0.000371231885
102       0.000397961068
103       0.000373594270
104       0.000388624519
105       0.000868596782
106      -0.000207752270
107       0.001026599462
108       0.000941206426
109       0.001300950162
110       0.001008548318
111       0.000199298074
112       0.000091092119
113      -0.000060143002
114      -0.000018485940
115      -0.000255160570
116       0.000056044090
117       0.000339079745
118      -0.027176100525
119      -0.052295659595
120      -0.061563928359
121      -0.018856984737
122      -0.001386606111
123       0.001583317849
124       0.000393489182
125      -0.004188660395
126       0.005492413776
127       0.000593233323
128      -0.005561597913
129       0.008505417948
130      -0.000229999186
131       0.000202800640
132       0.000438412681
133      -0.000500548011
134      -0.000247083866
135       0.000545213340
136       0.000885358867
137       0.000476131829
138      -0.001327249371
139      -0.000368149188
140       0.001467769532
141      -0.000231865210
142       0.000072307729
143       0.000146883029
144       0.000052830515
145      -0.000365164058
146       0.000020350797
147      -0.000232821153
148       0.056691863166
149       0.109093571321
150       0.128428062510
151       0.039337675448
152       0.001627680519
153       0.001287305557
154       0.002326407756
155       0.004660471319
156       0.004623402845
157       0.006267773197
158       0.005749746980
159       0.007394606981
160       0.007023461792
161       0.000597559683
162       0.000847174429
163       0.000469834564
164       0.000303948136
165       0.000323120231
166       0.000486797659
167       0.001022989205
168       0.001448758663
169       0.000481045351
170       0.000983344384
171       0.000010749524
172       0.000183656975
173       0.000254328581
174       0.000132663685
175       0.000299999745
176      -0.000082471951
177      -0.000106469347
 Sym=     1a
 Ene= 1.08469613302778E-01
 Spin= Alpha
 Occup= 0.000000
  1      -0.035342428139
  2      -0.005910009796
  3      -0.042117347388
  4      -0.035815614302
  5       0.001435206365
  6       1.134169422994
  7       4.756720838053
  8      -0.000000000762
  9       0.000000010292
 10       0.000000010415
 11       0.000000004782
 12      -0.000000019370
 13      -0.000000023586
 14       0.000000016089
 15      -0.000000076919
 16      -0.000000092846
 17      -0.000000002553
 18       0.000000181363
 19       0.000000176173
 20       0.000000000446
 21       0.000000001049
 22      -0.000000000220
 23      -0.000000000719
 24      -0.000000001054
 25      -0.000000001004
 26       0.000000004367
 27      -0.000000000415
 28      -0.000000000141
 29      -0.000000002631
 30       0.000000003090
 31       0.000000038338
 32      -0.000000004823
 33      -0.000000012624
 34      -0.000000029558
 35       0.000363750005
 36       0.001354201603
 37      -0.000134276336
 38      -0.000082242468
 39       0.000054983663
 40      -0.001048959965
 41       0.000341569353
 42      -0.014406795809
 43      -0.053634898134
 44       0.005318201569
 45       0.003257299111
 46      -0.002177698641
 47       0.041545413504
 48      -0.013528291829
 49       0.001275946817
 50       0.000753752039
 51       0.000073371959
 52       0.004806795263
 53      -0.001032299481
 54       0.001353610790
 55      -0.000496752333
 56       0.002576514948
 57      -0.001122002951
 58       0.005884791603
 59      -0.070039379863
 60      -0.677142593331
 61      -1.122024463209
 62       0.000906920900
 63      -0.001626564022
 64       0.000130267537
 65      -0.003129754286
 66       0.005613219952
 67      -0.000449548411
 68       0.144361323505
 69      -0.258912175662
 70       0.020735660234
 71      -0.000596850082
 72       0.000071125990
 73      -0.000127563924
 74      -0.000548815008
 75      -0.000888098993
 76       0.009845339131
 77      -0.001173256079
 78       0.002104231902
 79       0.009052975480
 80       0.014649631884
 81      -0.000183905476
 82      -0.000584683713
 83       0.000568744711
 84      -0.000056217408
 85      -0.000130306148
 86       0.001033675291
 87      -0.000108016076
 88       0.005884789712
 89      -0.070039422578
 90      -0.677142226710
 91      -1.122025370467
 92       0.001225133742
 93       0.001405194698
 94       0.000098323560
 95      -0.004227901111
 96      -0.004849284488
 97      -0.000339310843
 98       0.195013420361
 99       0.223674874083
100       0.015650842797
101      -0.000600656910
102       0.000072520501
103       0.000083178545
104      -0.000142566199
105       0.001036428861
106       0.009908136521
107      -0.001196261359
108      -0.001372075077
109       0.002351702558
110      -0.017096414340
111      -0.000157750306
112      -0.000694828061
113      -0.000444009770
114       0.000002805800
115       0.000093149948