[Molden Format]
[Title]
 Molden file created by orca_2mkl for BaseName=test2

[Atoms] AU
H    1   1          0.0000000000         0.0000000000         0.0000000000 
H    2   1          0.0000000000         0.0000000000         1.5117809071 
[GTO]
  1 0
s   3 1.0 
       13.0107010000         0.1634903809
        1.9622572000         0.2773515510
        0.4445379600         0.3157501452
s   1 1.0 
        0.1219496200         0.1470772262
p   1 1.0 
        0.8000000000         1.0784563492

  2 0
s   3 1.0 
       13.0107010000         0.1634903809
        1.9622572000         0.2773515510
        0.4445379600         0.3157501452
s   1 1.0 
        0.1219496200         0.1470772262
p   1 1.0 
        0.8000000000         1.0784563492

[5D]
[7F]
[9G]
[MO]
 Sym=     1a
 Ene= -5.74973736669689E-01
 Spin= Alpha
 Occup= 2.000000
  1      -0.397843187180
  2      -0.187116426295
  3      -0.000000000000
  4      -0.000000000000
  5      -0.020824560950
  6      -0.397843187180
  7      -0.187116426295
  8      -0.000000000000
  9      -0.000000000000
 10       0.020824560950
 Sym=     1a
 Ene= 1.85635692799854E-01
 Spin= Alpha
 Occup= 0.000000
  1      -0.156085237580
  2      -1.784509273992
  3      -0.000000000000
  4      -0.000000000000
  5      -0.003265237347
  6       0.156085237580
  7       1.784509273992
  8       0.000000000000
  9       0.000000000000
 10      -0.003265237347
 Sym=     1a
 Ene= 4.93437971379130E-01
 Spin= Alpha
 Occup= 0.000000
  1      -0.720297073287
  2       0.729152548775
  3      -0.000000000000
  4       0.000000000000
  5      -0.019897726275
  6      -0.720297073287
  7       0.729152548775
  8       0.000000000000
  9       0.000000000000
 10       0.019897726275
 Sym=     1a
 Ene= 9.17041329240667E-01
 Spin= Alpha
 Occup= 0.000000
  1       0.915801870867
  2      -1.553869829089
  3      -0.000000000000
  4      -0.000000000000
  5      -0.288152514036
  6      -0.915801870867
  7       1.553869829089
  8       0.000000000000
  9       0.000000000000
 10      -0.288152514036
 Sym=     1a
 Ene= 1.41651497175301E+00
 Spin= Alpha
 Occup= 0.000000
  1      -0.000000000000
  2       0.000000000000
  3       0.112099493723
  4      -0.586823968321
  5       0.000000000000
  6      -0.000000000000
  7       0.000000000000
  8       0.112099493723
  9      -0.586823968321
 10       0.000000000000
 Sym=     1a
 Ene= 1.41651497175302E+00
 Spin= Alpha
 Occup= 0.000000
  1       0.000000000000
  2      -0.000000000000
  3       0.586823968321
  4       0.112099493723
  5      -0.000000000000
  6       0.000000000000
  7       0.000000000000
  8       0.586823968321
  9       0.112099493723
 10      -0.000000000000
 Sym=     1a
 Ene= 2.02925797726430E+00
 Spin= Alpha
 Occup= 0.000000
  1      -0.405044601211
  2       0.204101606223
  3       0.000000000000
  4      -0.000000000000
  5       0.672661473627
  6      -0.405044601211
  7       0.204101606223
  8      -0.000000000000
  9      -0.000000000000
 10      -0.672661473627
 Sym=     1a
 Ene= 2.17653650044928E+00
 Spin= Alpha
 Occup= 0.000000
  1       0.000000000000
  2      -0.000000000000
  3       0.870664506184
  4      -0.276487137401
  5      -0.000000000000
  6       0.000000000000
  7       0.000000000000
  8      -0.870664506184
  9       0.276487137401
 10       0.000000000000
 Sym=     1a
 Ene= 2.17653650044929E+00
 Spin= Alpha
 Occup= 0.000000
  1       0.000000000000
  2      -0.000000000000
  3       0.276487137401
  4       0.870664506184
  5      -0.000000000000
  6       0.000000000000
  7       0.000000000000
  8      -0.276487137401
  9      -0.870664506184
 10       0.000000000000
 Sym=     1a
 Ene= 3.49390404523084E+00
 Spin= Alpha
 Occup= 0.000000
  1       1.969285260893
  2       0.035430430023
  3       0.000000000000
  4       0.000000000000
  5       1.789860116531
  6      -1.969285260893
  7      -0.035430430023
  8      -0.000000000000
  9       0.000000000000
 10       1.789860116531
